ITEM: TIMESTEP
         0
ITEM: NUMBER OF ATOMS
         8
ITEM: BOX BOUNDS xy xz yz
         0.0000         3.8073         0.0000
         0.0000         3.8073         0.0000
         0.0000         3.8073         0.0000
ITEM: ATOMS id type x y z ekin epot sxx syy szz syz sxz sxy 
       1   B     0.00000     0.00000     0.00000  0.00E+000 -7.15E+000 -2.38E+000 -2.38E+000 -2.38E+000 -9.30E-016  9.09E-016  4.06E-016
       2   B     1.90365     1.90365     0.00000  0.00E+000 -7.15E+000 -2.38E+000 -2.38E+000 -2.38E+000  8.33E-017 -1.67E-016  1.29E-015
       3   B     1.90365     0.00000     1.90365  0.00E+000 -7.15E+000 -2.38E+000 -2.38E+000 -2.38E+000 -1.39E-016  3.47E-016 -6.66E-016
       4   B     0.00000     1.90365     1.90365  0.00E+000 -7.15E+000 -2.38E+000 -2.38E+000 -2.38E+000  5.13E-016  3.89E-016  2.22E-016
       5   N     0.95183     0.95183     0.95183  0.00E+000 -7.15E+000 -2.38E+000 -2.38E+000 -2.38E+000 -6.66E-016 -8.74E-016 -7.22E-016
       6   N     2.85547     2.85547     0.95183  0.00E+000 -7.15E+000 -2.38E+000 -2.38E+000 -2.38E+000 -1.33E-015  0.00E+000  6.66E-016
       7   N     2.85547     0.95183     2.85547  0.00E+000 -7.15E+000 -2.38E+000 -2.38E+000 -2.38E+000 -6.11E-016  2.78E-016 -3.89E-016
       8   N     0.95183     2.85547     2.85547  0.00E+000 -7.15E+000 -2.38E+000 -2.38E+000 -2.38E+000  2.78E-016 -1.11E-015 -3.33E-016
