ITEM: TIMESTEP
         0
ITEM: NUMBER OF ATOMS
        80
ITEM: BOX BOUNDS xy xz yz
         0.0000        17.0268         0.0000
         0.0000         8.5134         0.0000
         0.0000         3.8073         0.0000
ITEM: ATOMS id type x y z ekin epot sxx syy szz syz sxz sxy 
       1   B     8.51339     0.36949     3.76008  0.00E+000 -2.77E+000 -4.84E+000  3.81E+000  2.82E+000  5.95E-001 -7.13E-016 -3.15E-010
       2   B    15.48619     2.85085     3.65518  0.00E+000 -6.31E+000 -1.23E+000 -2.29E+000 -8.91E-001 -3.98E-001  1.88E+000 -2.22E-001
       3   B     1.54059     2.85085     3.65518  0.00E+000 -6.31E+000 -1.23E+000 -2.29E+000 -8.91E-001 -3.98E-001 -1.88E+000  2.22E-001
       4   B    14.84520     4.53549     1.86374  0.00E+000 -8.29E+000 -2.61E+000 -3.89E+000 -1.99E+000 -3.06E-002 -3.73E-001  9.97E-001
       5   B     2.18157     4.53549     1.86374  0.00E+000 -8.29E+000 -2.61E+000 -3.89E+000 -1.99E+000 -3.06E-002  3.73E-001 -9.97E-001
       6   B    10.05397     1.40584     1.75153  0.00E+000 -6.31E+000 -1.23E+000 -2.29E+000 -8.91E-001  3.98E-001 -1.88E+000 -2.22E-001
       7   B     6.97280     1.40584     1.75153  0.00E+000 -6.31E+000 -1.23E+000 -2.29E+000 -8.91E-001  3.98E-001  1.88E+000  2.22E-001
       8   B     0.00000     3.88720     1.85643  0.00E+000 -2.77E+000 -4.84E+000  3.81E+000  2.82E+000 -5.95E-001 -1.87E-006 -2.79E-007
       9   B     9.29488     3.33020     0.10093  0.00E+000 -2.65E+000 -2.82E-001  1.19E+000  2.67E-001  2.74E+000 -1.06E+000  2.68E-001
      10   B     7.73190     3.33020     0.10093  0.00E+000 -2.65E+000 -2.82E-001  1.19E+000  2.67E-001  2.74E+000  1.06E+000 -2.68E-001
      11   B    16.24528     5.18318     0.10093  0.00E+000 -2.65E+000 -2.82E-001  1.19E+000  2.67E-001 -2.74E+000  1.06E+000  2.68E-001
      12   B     0.78149     5.18318     0.10093  0.00E+000 -2.65E+000 -2.82E-001  1.19E+000  2.67E-001 -2.74E+000 -1.06E+000 -2.68E-001
      13   B     0.00000     8.14389     3.76008  0.00E+000 -2.77E+000 -4.84E+000  3.81E+000  2.82E+000 -5.95E-001 -1.87E-006 -2.79E-007
      14   B    13.78810     6.41550     3.50776  0.00E+000 -9.89E+000 -1.85E+000 -5.93E+000 -5.43E+000 -2.31E-001  1.85E-001  3.52E-001
      15   B     3.23868     6.41550     3.50776  0.00E+000 -9.89E+000 -1.85E+000 -5.93E+000 -5.43E+000 -2.31E-001 -1.85E-001 -3.52E-001
      16   B    16.24528     0.92649     2.00458  0.00E+000 -2.65E+000 -2.82E-001  1.19E+000  2.67E-001 -2.74E+000  1.06E+000  2.68E-001
      17   B     0.78149     0.92649     2.00458  0.00E+000 -2.65E+000 -2.82E-001  1.19E+000  2.67E-001 -2.74E+000 -1.06E+000 -2.68E-001
      18   B     8.51339     4.62619     1.85643  0.00E+000 -2.77E+000 -4.84E+000  3.81E+000  2.82E+000  5.95E-001  1.15E-015 -3.15E-010
      19   B    15.48618     7.10754     1.75153  0.00E+000 -6.31E+000 -1.23E+000 -2.29E+000 -8.91E-001 -3.98E-001  1.88E+000 -2.22E-001
      20   B     1.54059     7.10754     1.75153  0.00E+000 -6.31E+000 -1.23E+000 -2.29E+000 -8.91E-001 -3.98E-001 -1.88E+000  2.22E-001
      21   B    11.75206     2.09789     3.50776  0.00E+000 -9.89E+000 -1.85E+000 -5.93E+000 -5.43E+000  2.31E-001 -1.85E-001  3.52E-001
      22   B     5.27471     2.09789     3.50776  0.00E+000 -9.89E+000 -1.85E+000 -5.93E+000 -5.43E+000  2.31E-001  1.85E-001 -3.52E-001
      23   B    10.69496     3.97789     1.86374  0.00E+000 -8.29E+000 -2.61E+000 -3.89E+000 -1.99E+000  3.07E-002  3.73E-001  9.97E-001
      24   B     6.33182     3.97789     1.86374  0.00E+000 -8.29E+000 -2.61E+000 -3.89E+000 -1.99E+000  3.07E-002 -3.73E-001 -9.97E-001
      25   B    13.78810     2.15880     1.60411  0.00E+000 -9.89E+000 -1.85E+000 -5.93E+000 -5.43E+000 -2.31E-001  1.85E-001  3.52E-001
      26   B     3.23868     2.15880     1.60411  0.00E+000 -9.89E+000 -1.85E+000 -5.93E+000 -5.43E+000 -2.31E-001 -1.85E-001 -3.52E-001
      27   B    12.77008     4.25669     0.22522  0.00E+000 -9.64E+000  3.84E-001 -6.11E+000 -8.42E+000 -7.42E-007 -4.46E-007 -7.59E-001
      28   B     4.25669     4.25669     0.22522  0.00E+000 -9.64E+000  3.84E-001 -6.11E+000 -8.42E+000 -7.45E-007  4.23E-007  7.59E-001
      29   B    10.05397     5.66254     3.65518  0.00E+000 -6.31E+000 -1.23E+000 -2.29E+000 -8.91E-001  3.98E-001 -1.88E+000 -2.22E-001
      30   B     6.97280     5.66254     3.65518  0.00E+000 -6.31E+000 -1.23E+000 -2.29E+000 -8.91E-001  3.98E-001  1.88E+000  2.22E-001
      31   B    12.77008     0.00000     2.12887  0.00E+000 -9.64E+000  3.84E-001 -6.11E+000 -8.42E+000 -1.04E-006  2.39E-008 -7.59E-001
      32   B     4.25669     0.00000     2.12887  0.00E+000 -9.64E+000  3.84E-001 -6.11E+000 -8.42E+000 -1.04E-006 -4.61E-008  7.59E-001
      33   B     9.29488     7.58689     2.00458  0.00E+000 -2.65E+000 -2.82E-001  1.19E+000  2.67E-001  2.74E+000 -1.06E+000  2.68E-001
      34   B     7.73189     7.58689     2.00458  0.00E+000 -2.65E+000 -2.82E-001  1.19E+000  2.67E-001  2.74E+000  1.06E+000 -2.68E-001
      35   B    11.75206     6.35458     1.60411  0.00E+000 -9.89E+000 -1.85E+000 -5.93E+000 -5.43E+000  2.31E-001 -1.85E-001  3.52E-001
      36   B     5.27471     6.35458     1.60411  0.00E+000 -9.89E+000 -1.85E+000 -5.93E+000 -5.43E+000  2.31E-001  1.85E-001 -3.52E-001
      37   B    14.84520     0.27880     3.76739  0.00E+000 -8.29E+000 -2.61E+000 -3.89E+000 -1.99E+000 -3.06E-002 -3.73E-001  9.97E-001
      38   B     2.18157     0.27880     3.76739  0.00E+000 -8.29E+000 -2.61E+000 -3.89E+000 -1.99E+000 -3.06E-002  3.73E-001 -9.97E-001
      39   B    10.69496     8.23459     3.76739  0.00E+000 -8.29E+000 -2.61E+000 -3.89E+000 -1.99E+000  3.06E-002  3.73E-001  9.97E-001
      40   B     6.33182     8.23459     3.76739  0.00E+000 -8.29E+000 -2.61E+000 -3.89E+000 -1.99E+000  3.06E-002 -3.73E-001 -9.97E-001
      41   N    13.04796     1.29785     3.19246  0.00E+000 -2.30E+000 -2.74E+000  1.61E+000  3.27E+000 -2.13E+000  1.64E+000  4.58E-001
      42   N     3.97881     1.29785     3.19246  0.00E+000 -2.30E+000 -2.74E+000  1.61E+000  3.27E+000 -2.13E+000 -1.64E+000 -4.58E-001
      43   N    15.88220     4.05996     2.85362  0.00E+000 -9.97E+000 -1.28E+000 -4.98E+000 -6.73E+000 -1.57E-001  1.48E-002 -7.13E-001
      44   N     1.14457     4.05996     2.85362  0.00E+000 -9.97E+000 -1.28E+000 -4.98E+000 -6.73E+000 -1.57E-001 -1.48E-002  7.13E-001
      45   N    15.42430     5.78891     1.12485  0.00E+000 -8.58E+000 -8.96E-001 -5.42E+000 -3.96E+000 -1.32E+000  1.18E+000  8.45E-001
      46   N     1.60247     5.78891     1.12485  0.00E+000 -8.58E+000 -8.96E-001 -5.42E+000 -3.96E+000 -1.32E+000 -1.18E+000 -8.45E-001
      47   N    10.11585     2.72448     1.12485  0.00E+000 -8.58E+000 -8.96E-001 -5.42E+000 -3.96E+000  1.32E+000 -1.18E+000  8.45E-001
      48   N     6.91092     2.72448     1.12485  0.00E+000 -8.58E+000 -8.96E-001 -5.42E+000 -3.96E+000  1.32E+000  1.18E+000 -8.45E-001
      49   N     9.65795     4.45343     2.85362  0.00E+000 -9.97E+000 -1.28E+000 -4.98E+000 -6.73E+000  1.57E-001 -1.48E-002 -7.13E-001
      50   N     7.36882     4.45343     2.85362  0.00E+000 -9.97E+000 -1.28E+000 -4.98E+000 -6.73E+000  1.57E-001  1.48E-002  7.13E-001
      51   N    12.49220     7.21554     3.19246  0.00E+000 -2.30E+000 -2.74E+000  1.61E+000  3.27E+000  2.13E+000 -1.64E+000  4.58E-001
      52   N     4.53457     7.21554     3.19246  0.00E+000 -2.30E+000 -2.74E+000  1.61E+000  3.27E+000  2.13E+000  1.64E+000 -4.58E-001
      53   N    14.65162     7.52615     2.87936  0.00E+000 -6.64E+000 -2.30E+000 -1.80E+000 -1.70E+000 -2.11E-001  1.14E+000 -5.94E-001
      54   N     2.37516     7.52615     2.87936  0.00E+000 -6.64E+000 -2.30E+000 -1.80E+000 -1.70E+000 -2.11E-001 -1.14E+000  5.94E-001
      55   N    12.49220     2.95884     1.28881  0.00E+000 -2.30E+000 -2.74E+000  1.61E+000  3.27E+000  2.13E+000 -1.64E+000  4.58E-001
      56   N     4.53458     2.95884     1.28881  0.00E+000 -2.30E+000 -2.74E+000  1.61E+000  3.27E+000  2.13E+000  1.64E+000 -4.58E-001
      57   N    13.04796     5.55454     1.28881  0.00E+000 -2.30E+000 -2.74E+000  1.61E+000  3.27E+000 -2.13E+000  1.64E+000  4.58E-001
      58   N     3.97881     5.55454     1.28881  0.00E+000 -2.30E+000 -2.74E+000  1.61E+000  3.27E+000 -2.13E+000 -1.64E+000 -4.58E-001
      59   N    10.88854     0.98724     2.87936  0.00E+000 -6.64E+000 -2.30E+000 -1.80E+000 -1.70E+000  2.11E-001 -1.14E+000 -5.94E-001
      60   N     6.13823     0.98724     2.87936  0.00E+000 -6.64E+000 -2.30E+000 -1.80E+000 -1.70E+000  2.11E-001  1.14E+000  5.94E-001
      61   N    11.88067     3.37829     2.62508  0.00E+000 -3.09E+000 -2.59E+000  7.98E-001  2.29E+000  1.50E+000 -2.16E+000  2.12E-001
      62   N     5.14611     3.37829     2.62508  0.00E+000 -3.09E+000 -2.59E+000  7.98E-001  2.29E+000  1.50E+000  2.16E+000 -2.12E-001
      63   N    10.88854     5.24393     0.97571  0.00E+000 -6.64E+000 -2.30E+000 -1.80E+000 -1.70E+000  2.11E-001 -1.14E+000 -5.94E-001
      64   N     6.13823     5.24393     0.97571  0.00E+000 -6.64E+000 -2.30E+000 -1.80E+000 -1.70E+000  2.11E-001  1.14E+000  5.94E-001
      65   N    14.65162     3.26945     0.97571  0.00E+000 -6.64E+000 -2.30E+000 -1.80E+000 -1.70E+000 -2.11E-001  1.14E+000 -5.94E-001
      66   N     2.37516     3.26945     0.97571  0.00E+000 -6.64E+000 -2.30E+000 -1.80E+000 -1.70E+000 -2.11E-001 -1.14E+000  5.94E-001
      67   N    13.65949     5.13510     2.62508  0.00E+000 -3.09E+000 -2.59E+000  7.98E-001  2.29E+000 -1.50E+000  2.16E+000  2.12E-001
      68   N     3.36728     5.13510     2.62508  0.00E+000 -3.09E+000 -2.59E+000  7.98E-001  2.29E+000 -1.50E+000 -2.16E+000 -2.12E-001
      69   N    10.11585     6.98117     3.02851  0.00E+000 -8.58E+000 -8.96E-001 -5.42E+000 -3.96E+000  1.32E+000 -1.18E+000  8.45E-001
      70   N     6.91092     6.98117     3.02851  0.00E+000 -8.58E+000 -8.96E-001 -5.42E+000 -3.96E+000  1.32E+000  1.18E+000 -8.45E-001
      71   N    13.65949     0.87840     0.72143  0.00E+000 -3.09E+000 -2.59E+000  7.98E-001  2.29E+000 -1.50E+000  2.16E+000  2.12E-001
      72   N     3.36728     0.87840     0.72143  0.00E+000 -3.09E+000 -2.59E+000  7.98E-001  2.29E+000 -1.50E+000 -2.16E+000 -2.12E-001
      73   N     9.65795     0.19674     0.94997  0.00E+000 -9.97E+000 -1.28E+000 -4.98E+000 -6.73E+000  1.57E-001 -1.48E-002 -7.13E-001
      74   N     7.36882     0.19674     0.94997  0.00E+000 -9.97E+000 -1.28E+000 -4.98E+000 -6.73E+000  1.57E-001  1.48E-002  7.13E-001
      75   N    15.88220     8.31665     0.94997  0.00E+000 -9.97E+000 -1.28E+000 -4.98E+000 -6.73E+000 -1.57E-001  1.48E-002 -7.13E-001
      76   N     1.14457     8.31665     0.94997  0.00E+000 -9.97E+000 -1.28E+000 -4.98E+000 -6.73E+000 -1.57E-001 -1.48E-002  7.13E-001
      77   N    11.88067     7.63498     0.72143  0.00E+000 -3.09E+000 -2.59E+000  7.98E-001  2.29E+000  1.50E+000 -2.16E+000  2.12E-001
      78   N     5.14611     7.63498     0.72143  0.00E+000 -3.09E+000 -2.59E+000  7.98E-001  2.29E+000  1.50E+000  2.16E+000 -2.12E-001
      79   N    15.42431     1.53221     3.02851  0.00E+000 -8.58E+000 -8.96E-001 -5.42E+000 -3.96E+000 -1.32E+000  1.18E+000  8.45E-001
      80   N     1.60247     1.53221     3.02851  0.00E+000 -8.58E+000 -8.96E-001 -5.42E+000 -3.96E+000 -1.32E+000 -1.18E+000 -8.45E-001
