ITEM: TIMESTEP
         0
ITEM: NUMBER OF ATOMS
        24
ITEM: BOX BOUNDS xy xz yz
         0.0000         5.3843         0.0000
         0.0000         4.6630         0.0000
         0.0000         6.5944         0.0000
ITEM: ATOMS id type x y z ekin epot sxx syy szz syz sxz sxy 
       1   B     0.00000     0.00000     0.00000  0.00E+000 -7.15E+000 -2.38E+000 -2.38E+000 -2.38E+000  1.79E-010  1.07E-015 -7.25E-016
       2   B     2.69217     0.00000     0.00000  0.00E+000 -7.15E+000 -2.38E+000 -2.38E+000 -2.38E+000  1.79E-010 -2.64E-016 -2.53E-016
       3   B     1.34608     2.33149     0.00000  0.00E+000 -7.15E+000 -2.38E+000 -2.38E+000 -2.38E+000  1.80E-010 -1.60E-016 -7.63E-017
       4   B     4.03825     2.33149     0.00000  0.00E+000 -7.15E+000 -2.38E+000 -2.38E+000 -2.38E+000  1.80E-010  6.12E-016 -1.33E-015
       5   B     1.34608     0.77716     2.19815  0.00E+000 -7.15E+000 -2.38E+000 -2.38E+000 -2.38E+000  2.75E-010 -2.81E-016 -6.09E-017
       6   B     4.03825     0.77716     2.19815  0.00E+000 -7.15E+000 -2.38E+000 -2.38E+000 -2.38E+000  2.75E-010  4.67E-016  9.09E-016
       7   B     0.00000     3.10865     2.19815  0.00E+000 -7.15E+000 -2.38E+000 -2.38E+000 -2.38E+000  2.78E-010  1.54E-017 -1.87E-016
       8   B     2.69217     3.10865     2.19815  0.00E+000 -7.15E+000 -2.38E+000 -2.38E+000 -2.38E+000  2.78E-010  3.33E-016  1.08E-016
       9   B     0.00000     1.55432     4.39629  0.00E+000 -7.15E+000 -2.38E+000 -2.38E+000 -2.38E+000 -4.98E-010 -2.07E-016  1.52E-015
      10   B     2.69217     1.55432     4.39629  0.00E+000 -7.15E+000 -2.38E+000 -2.38E+000 -2.38E+000 -4.98E-010  2.06E-016 -2.50E-016
      11   B     1.34608     3.88581     4.39629  0.00E+000 -7.15E+000 -2.38E+000 -2.38E+000 -2.38E+000 -4.86E-010 -1.09E-016  3.26E-016
      12   B     4.03825     3.88581     4.39629  0.00E+000 -7.15E+000 -2.38E+000 -2.38E+000 -2.38E+000 -4.86E-010  7.75E-016  9.99E-016
      13   N     0.00000     0.00000     1.64861  0.00E+000 -7.15E+000 -2.38E+000 -2.38E+000 -2.38E+000  1.86E-010  6.48E-016 -2.66E-016
      14   N     2.69217     0.00000     1.64861  0.00E+000 -7.15E+000 -2.38E+000 -2.38E+000 -2.38E+000  1.86E-010  1.09E-016 -8.67E-017
      15   N     1.34608     2.33149     1.64861  0.00E+000 -7.15E+000 -2.38E+000 -2.38E+000 -2.38E+000  1.74E-010  8.22E-017 -4.96E-016
      16   N     4.03825     2.33149     1.64861  0.00E+000 -7.15E+000 -2.38E+000 -2.38E+000 -2.38E+000  1.74E-010  3.23E-017 -1.92E-016
      17   N     1.34608     0.77716     3.84676  0.00E+000 -7.15E+000 -2.38E+000 -2.38E+000 -2.38E+000 -4.90E-010 -8.45E-017 -2.60E-016
      18   N     4.03825     0.77716     3.84676  0.00E+000 -7.15E+000 -2.38E+000 -2.38E+000 -2.38E+000 -4.90E-010  2.65E-016  4.58E-016
      19   N     0.00000     3.10865     3.84676  0.00E+000 -7.15E+000 -2.38E+000 -2.38E+000 -2.38E+000 -4.93E-010  3.48E-016 -3.30E-016
      20   N     2.69217     3.10865     3.84676  0.00E+000 -7.15E+000 -2.38E+000 -2.38E+000 -2.38E+000 -4.93E-010 -2.75E-016  8.32E-017
      21   N     0.00000     1.55432     6.04490  0.00E+000 -7.15E+000 -2.38E+000 -2.38E+000 -2.38E+000  2.77E-010 -2.80E-016  8.32E-017
      22   N     2.69217     1.55432     6.04490  0.00E+000 -7.15E+000 -2.38E+000 -2.38E+000 -2.38E+000  2.77E-010  5.42E-017  5.56E-017
      23   N     1.34608     3.88581     6.04490  0.00E+000 -7.15E+000 -2.38E+000 -2.38E+000 -2.38E+000  2.76E-010 -1.82E-016 -1.25E-016
      24   N     4.03825     3.88581     6.04490  0.00E+000 -7.15E+000 -2.38E+000 -2.38E+000 -2.38E+000  2.76E-010  4.45E-016  2.00E-015
