ITEM: TIMESTEP
         0
ITEM: NUMBER OF ATOMS
        68
ITEM: BOX BOUNDS xy xz yz
         0.0000        16.0052         0.0000
         0.0000         8.3431         0.0000
         0.0000         3.8073         0.0000
ITEM: ATOMS id type x y z ekin epot sxx syy szz syz sxz sxy 
       1   B     8.22434     8.22952     0.40339  0.00E+000 -1.23E+000  5.75E+000 -4.20E+000 -3.40E+000  1.21E+000  1.01E+000  2.37E-001
       2   B    14.90993     3.11710     3.03626  0.00E+000 -1.02E+001 -7.55E+000 -1.33E+000 -3.27E-001  8.10E-001 -1.61E+000 -5.30E-001
       3   B     1.41776     3.30506     3.78757  0.00E+000 -1.17E+001 -9.22E+000 -1.71E+000  4.93E-001 -1.64E-001  1.04E-002  1.55E-004
       4   B    13.83872     4.91783     1.31964  0.00E+000 -8.95E+000 -4.59E+000 -2.57E+000 -1.52E+000  8.25E-001 -1.48E+000 -6.35E-001
       5   B     2.44103     4.99597     2.07671  0.00E+000 -1.12E+001 -7.54E+000 -9.67E-001 -1.83E+000  1.92E-001  9.39E-002  3.49E-002
       6   B     9.03005     1.24246     2.12721  0.00E+000 -1.73E+000  3.24E+000 -3.18E+000 -2.44E+000  1.95E+000  4.20E-001  9.12E-001
       7   B     6.58593     0.68206     2.20277  0.00E+000 -4.67E+000  2.48E+000 -4.07E+000 -3.75E+000  1.06E-001 -1.74E-001 -1.76E-001
       8   B     7.52978     2.35225     0.30946  0.00E+000 -3.25E+000  3.28E+000 -3.14E+000 -4.06E+000 -2.30E-001 -6.64E-002 -4.29E-002
       9   B    16.00169     5.41488     2.60489  0.00E+000 -1.13E+001 -9.80E+000 -1.73E+000  1.60E+000  7.31E-001 -1.02E+000 -3.12E-001
      10   B    12.87302     6.71770     3.40463  0.00E+000 -7.57E+000 -1.74E+000 -3.77E+000 -2.48E+000  7.09E-001 -1.53E+000 -4.26E-001
      11   B     3.26743     6.60128     0.15602  0.00E+000 -1.02E+001 -6.94E+000 -1.23E+000 -1.61E+000  1.54E-001  1.90E-001 -2.63E-002
      12   B    16.00169     1.24332     0.70124  0.00E+000 -1.13E+001 -9.80E+000 -1.73E+000  1.60E+000  7.31E-001 -1.02E+000 -3.12E-001
      13   B     8.22434     4.05796     2.30704  0.00E+000 -1.23E+000  5.75E+000 -4.20E+000 -3.40E+000  1.21E+000  1.01E+000  2.37E-001
      14   B    14.90993     7.28866     1.13261  0.00E+000 -1.02E+001 -7.55E+000 -1.33E+000 -3.27E-001  8.10E-001 -1.61E+000 -5.30E-001
      15   B     1.41776     7.47662     1.88392  0.00E+000 -1.17E+001 -9.22E+000 -1.71E+000  4.93E-001 -1.64E-001  1.04E-002  1.61E-004
      16   B    11.06833     1.86390     3.58661  0.00E+000 -4.62E+000  3.51E+000 -4.94E+000 -4.16E+000  7.11E-001 -1.83E+000 -9.07E-002
      17   B     4.96843     1.55877     0.23760  0.00E+000 -7.36E+000 -2.38E+000 -2.61E+000 -2.70E+000  6.95E-002  8.83E-003 -4.14E-002
      18   B    10.00467     3.65887     1.87742  0.00E+000 -2.28E+000  4.69E+000 -3.97E+000 -3.81E+000  1.39E+000 -2.10E+000 -1.46E+000
      19   B     5.78826     3.20095     2.16823  0.00E+000 -5.97E+000  1.92E-001 -3.19E+000 -3.55E+000  4.04E-002  1.39E-001  2.60E-001
      20   B    12.87302     2.54614     1.50098  0.00E+000 -7.57E+000 -1.74E+000 -3.77E+000 -2.48E+000  7.09E-001 -1.53E+000 -4.26E-001
      21   B     3.26743     2.42972     2.05967  0.00E+000 -1.02E+001 -6.94E+000 -1.23E+000 -1.61E+000  1.54E-001  1.90E-001 -2.63E-002
      22   B    11.70678     4.36512     3.68516  0.00E+000 -5.74E+000  1.25E+000 -4.23E+000 -3.67E+000  3.86E-001 -4.65E-001 -1.45E-001
      23   B     4.07593     4.07113     0.21783  0.00E+000 -8.76E+000 -4.97E+000 -1.93E+000 -1.78E+000 -8.01E-004  8.72E-002  6.67E-002
      24   B     9.03005     5.41401     0.22356  0.00E+000 -1.73E+000  3.24E+000 -3.18E+000 -2.44E+000  1.95E+000  4.20E-001  9.12E-001
      25   B     6.58593     4.85362     0.29911  0.00E+000 -4.67E+000  2.48E+000 -4.07E+000 -3.75E+000  1.06E-001 -1.74E-001 -1.76E-001
      26   B    11.70678     0.19356     1.78151  0.00E+000 -5.74E+000  1.25E+000 -4.23E+000 -3.67E+000  3.86E-001 -4.65E-001 -1.45E-001
      27   B     4.07593     8.24269     2.12148  0.00E+000 -8.76E+000 -4.97E+000 -1.93E+000 -1.78E+000 -7.95E-004  8.72E-002  6.66E-002
      28   B     7.52978     6.52380     2.21311  0.00E+000 -3.25E+000  3.28E+000 -3.14E+000 -4.06E+000 -2.30E-001 -6.64E-002 -4.29E-002
      29   B    11.06833     6.03546     1.68295  0.00E+000 -4.62E+000  3.51E+000 -4.94E+000 -4.16E+000  7.11E-001 -1.83E+000 -9.06E-002
      30   B     4.96843     5.73033     2.14125  0.00E+000 -7.36E+000 -2.38E+000 -2.61E+000 -2.70E+000  6.95E-002  8.82E-003 -4.14E-002
      31   B    13.83872     0.74628     3.22329  0.00E+000 -8.95E+000 -4.59E+000 -2.57E+000 -1.52E+000  8.25E-001 -1.48E+000 -6.35E-001
      32   B     2.44103     0.82441     0.17306  0.00E+000 -1.12E+001 -7.54E+000 -9.67E-001 -1.83E+000  1.92E-001  9.39E-002  3.49E-002
      33   B    10.00467     7.83043     3.78107  0.00E+000 -2.28E+000  4.69E+000 -3.97E+000 -3.81E+000  1.39E+000 -2.10E+000 -1.46E+000
      34   B     5.78826     7.37251     0.26458  0.00E+000 -5.97E+000  1.92E-001 -3.19E+000 -3.55E+000  4.04E-002  1.39E-001  2.60E-001
      35   N     7.84068     1.03757     3.16211  0.00E+000 -1.18E+001 -8.41E+000 -4.51E-001 -2.26E+000  1.27E-001 -2.39E-001  4.29E-001
      36   N    14.86985     4.49057     2.35975  0.00E+000 -4.45E+000  2.62E+000 -4.75E+000 -3.30E+000  1.36E+000 -1.58E+000 -7.70E-001
      37   N     1.27045     4.71573     3.07372  0.00E+000 -2.54E+000  3.55E+000 -4.13E+000 -3.22E+000  1.78E+000  6.01E-001  1.11E+000
      38   N    13.89059     6.29060     0.65998  0.00E+000 -5.66E+000  2.75E-001 -3.72E+000 -2.54E+000  1.04E+000 -1.69E+000 -7.35E-001
      39   N     2.15764     6.24239     1.14953  0.00E+000 -2.68E+000  4.20E+000 -4.36E+000 -3.47E+000  1.02E+000  1.60E+000  7.85E-001
      40   N     8.83857     2.66630     1.39701  0.00E+000 -1.19E+001 -8.04E+000 -3.17E+000 -6.84E-002 -9.30E-001 -1.30E+000 -5.56E-001
      41   N     6.24432     1.94904     1.22998  0.00E+000 -9.18E+000 -6.15E+000 -1.31E+000 -1.06E+000 -1.46E-002  9.79E-002  1.77E-001
      42   N     7.03680     3.59116     3.19052  0.00E+000 -1.07E+001 -8.39E+000 -8.36E-001 -8.36E-001  1.71E-001  1.20E-001 -4.24E-001
      43   N    15.99129     6.84900     2.13340  0.00E+000 -3.23E+000  3.64E+000 -4.88E+000 -3.35E+000  1.46E+000 -1.05E+000 -4.32E-001
      44   N    12.88336     8.06677     2.71676  0.00E+000 -6.98E+000 -2.65E+000 -3.05E+000 -8.66E-001  8.24E-001 -1.54E+000 -5.70E-001
      45   N     2.79289     7.84767     3.04129  0.00E+000 -3.58E+000  2.71E+000 -3.41E+000 -3.57E+000 -8.96E-003  1.79E-001  9.16E-002
      46   N    15.99129     2.67744     0.22975  0.00E+000 -3.23E+000  3.64E+000 -4.88E+000 -3.35E+000  1.46E+000 -1.05E+000 -4.32E-001
      47   N     7.84068     5.20913     1.25846  0.00E+000 -1.18E+001 -8.41E+000 -4.51E-001 -2.26E+000  1.27E-001 -2.39E-001  4.29E-001
      48   N    10.34220     0.72693     2.85541  0.00E+000 -1.13E+001 -8.58E+000 -7.72E-001 -1.05E+000  4.02E-001 -4.19E-001 -5.74E-001
      49   N     5.34819     0.28567     3.11628  0.00E+000 -7.81E+000 -3.69E+000 -1.76E+000 -1.91E+000  4.63E-002 -1.85E-002 -1.90E-002
      50   N    11.01093     3.20118     2.92424  0.00E+000 -1.01E+001 -6.86E+000 -1.88E+000 -4.19E-001  8.40E-001 -1.74E+000  3.56E-001
      51   N     4.54826     2.81810     3.08863  0.00E+000 -6.38E+000 -1.01E+000 -2.49E+000 -2.73E+000  7.59E-002  1.60E-001  2.30E-001
      52   N    10.34220     4.89849     0.95176  0.00E+000 -1.13E+001 -8.58E+000 -7.72E-001 -1.05E+000  4.02E-001 -4.19E-001 -5.74E-001
      53   N     5.34819     4.45723     1.21263  0.00E+000 -7.81E+000 -3.69E+000 -1.76E+000 -1.91E+000  4.63E-002 -1.85E-002 -1.90E-002
      54   N    12.88336     3.89521     0.81311  0.00E+000 -6.98E+000 -2.65E+000 -3.05E+000 -8.66E-001  8.24E-001 -1.54E+000 -5.70E-001
      55   N     2.79289     3.67612     1.13764  0.00E+000 -3.58E+000  2.71E+000 -3.41E+000 -3.57E+000 -8.96E-003  1.79E-001  9.16E-002
      56   N    11.95309     5.66563     2.82996  0.00E+000 -8.51E+000 -5.00E+000 -1.30E+000 -1.35E+000  8.20E-001 -1.54E+000 -1.02E+000
      57   N     3.74062     5.33945     3.06429  0.00E+000 -5.15E+000  1.13E+000 -3.33E+000 -3.17E+000  1.15E-001  5.50E-002 -1.32E-002
      58   N     8.83857     6.83785     3.30066  0.00E+000 -1.19E+001 -8.04E+000 -3.17E+000 -6.84E-002 -9.30E-001 -1.30E+000 -5.56E-001
      59   N     6.24432     6.12060     3.13363  0.00E+000 -9.18E+000 -6.15E+000 -1.31E+000 -1.06E+000 -1.46E-002  9.79E-002  1.77E-001
      60   N    11.95309     1.49407     0.92631  0.00E+000 -8.51E+000 -5.00E+000 -1.30E+000 -1.35E+000  8.20E-001 -1.54E+000 -1.02E+000
      61   N     3.74062     1.16789     1.16064  0.00E+000 -5.15E+000  1.13E+000 -3.33E+000 -3.17E+000  1.15E-001  5.50E-002 -1.32E-002
      62   N     7.03680     7.76272     1.28686  0.00E+000 -1.07E+001 -8.39E+000 -8.36E-001 -8.36E-001  1.71E-001  1.20E-001 -4.24E-001
      63   N    14.86985     0.31901     0.45609  0.00E+000 -4.45E+000  2.62E+000 -4.75E+000 -3.30E+000  1.36E+000 -1.58E+000 -7.70E-001
      64   N     1.27045     0.54417     1.17007  0.00E+000 -2.54E+000  3.55E+000 -4.13E+000 -3.22E+000  1.78E+000  6.01E-001  1.11E+000
      65   N    11.01093     7.37274     1.02059  0.00E+000 -1.01E+001 -6.86E+000 -1.88E+000 -4.19E-001  8.40E-001 -1.74E+000  3.56E-001
      66   N     4.54826     6.98966     1.18498  0.00E+000 -6.38E+000 -1.01E+000 -2.49E+000 -2.73E+000  7.59E-002  1.60E-001  2.30E-001
      67   N    13.89059     2.11904     2.56363  0.00E+000 -5.66E+000  2.75E-001 -3.72E+000 -2.54E+000  1.04E+000 -1.69E+000 -7.35E-001
      68   N     2.15764     2.07083     3.05318  0.00E+000 -2.68E+000  4.20E+000 -4.36E+000 -3.47E+000  1.02E+000  1.60E+000  7.85E-001
