ITEM: TIMESTEP
         0
ITEM: NUMBER OF ATOMS
        80
ITEM: BOX BOUNDS xy xz yz
         0.0000        17.3673         0.0000
         0.0000         8.5134         0.0000
         0.0000         3.8073         0.0000
ITEM: ATOMS id type x y z ekin epot sxx syy szz syz sxz sxy 
       1   B     8.68365     8.48338     0.03568  0.00E+000 -6.73E+000 -3.24E+000 -1.74E+000 -1.63E+000  2.93E+000 -4.00E-016 -1.67E-011
       2   B    15.53807     3.41807     3.76074  0.00E+000 -7.56E+000 -2.77E+000 -1.73E+000 -3.07E+000  3.47E-001 -4.72E-001  1.92E-001
       3   B     1.82924     3.41807     3.76074  0.00E+000 -7.56E+000 -2.77E+000 -1.73E+000 -3.07E+000  3.47E-001  4.72E-001 -1.92E-001
       4   B    14.71435     5.10537     1.89471  0.00E+000 -7.17E+000 -2.10E+000 -2.86E+000 -2.23E+000 -1.81E-001 -1.10E-001  1.29E-001
       5   B     2.65296     5.10537     1.89471  0.00E+000 -7.17E+000 -2.10E+000 -2.86E+000 -2.23E+000 -1.81E-001  1.10E-001 -1.29E-001
       6   B    10.51289     0.83863     1.85709  0.00E+000 -7.56E+000 -2.77E+000 -1.73E+000 -3.07E+000 -3.47E-001  4.72E-001  1.92E-001
       7   B     6.85442     0.83863     1.85709  0.00E+000 -7.56E+000 -2.77E+000 -1.73E+000 -3.07E+000 -3.47E-001 -4.72E-001 -1.92E-001
       8   B     0.00000     4.28669     1.93933  0.00E+000 -6.73E+000 -3.24E+000 -1.74E+000 -1.63E+000 -2.93E+000 -2.44E-006 -1.66E-006
       9   B     9.72258     2.54932     0.00767  0.00E+000 -6.34E+000 -2.84E-001 -3.69E+000 -2.25E+000  5.42E-002 -1.64E+000 -8.63E-001
      10   B     7.64473     2.54932     0.00767  0.00E+000 -6.34E+000 -2.84E-001 -3.69E+000 -2.25E+000  5.42E-002  1.64E+000  8.63E-001
      11   B    16.32838     5.96406     0.00767  0.00E+000 -6.34E+000 -2.84E-001 -3.69E+000 -2.25E+000 -5.42E-002  1.64E+000 -8.63E-001
      12   B     1.03893     5.96406     0.00767  0.00E+000 -6.34E+000 -2.84E-001 -3.69E+000 -2.25E+000 -5.42E-002 -1.64E+000  8.63E-001
      13   B     0.00000     0.03000     0.03568  0.00E+000 -6.73E+000 -3.24E+000 -1.74E+000 -1.63E+000 -2.93E+000 -2.44E-006 -1.66E-006
      14   B    13.85887     6.80677     3.79122  0.00E+000 -7.24E+000 -2.41E+000 -2.40E+000 -2.53E+000  1.82E-002  1.37E-001 -1.42E-001
      15   B     3.50844     6.80677     3.79122  0.00E+000 -7.24E+000 -2.41E+000 -2.40E+000 -2.53E+000  1.82E-002 -1.37E-001  1.42E-001
      16   B    16.32838     1.70737     1.91132  0.00E+000 -6.34E+000 -2.84E-001 -3.69E+000 -2.25E+000 -5.42E-002  1.64E+000 -8.63E-001
      17   B     1.03892     1.70737     1.91132  0.00E+000 -6.34E+000 -2.84E-001 -3.69E+000 -2.25E+000 -5.42E-002 -1.64E+000  8.63E-001
      18   B     8.68365     4.22669     1.93933  0.00E+000 -6.73E+000 -3.24E+000 -1.74E+000 -1.63E+000  2.93E+000  5.03E-016 -1.68E-011
      19   B    15.53807     7.67476     1.85709  0.00E+000 -7.56E+000 -2.77E+000 -1.73E+000 -3.07E+000  3.47E-001 -4.72E-001  1.92E-001
      20   B     1.82924     7.67476     1.85709  0.00E+000 -7.56E+000 -2.77E+000 -1.73E+000 -3.07E+000  3.47E-001  4.72E-001 -1.92E-001
      21   B    12.19209     1.70662     3.79122  0.00E+000 -7.24E+000 -2.41E+000 -2.40E+000 -2.53E+000 -1.82E-002 -1.37E-001 -1.42E-001
      22   B     5.17522     1.70662     3.79122  0.00E+000 -7.24E+000 -2.41E+000 -2.40E+000 -2.53E+000 -1.82E-002  1.37E-001  1.42E-001
      23   B    11.33662     3.40802     1.89471  0.00E+000 -7.17E+000 -2.10E+000 -2.86E+000 -2.23E+000  1.81E-001  1.10E-001  1.29E-001
      24   B     6.03069     3.40802     1.89471  0.00E+000 -7.17E+000 -2.10E+000 -2.86E+000 -2.23E+000  1.81E-001 -1.10E-001 -1.29E-001
      25   B    13.85887     2.55008     1.88757  0.00E+000 -7.24E+000 -2.41E+000 -2.40E+000 -2.53E+000  1.82E-002  1.37E-001 -1.42E-001
      26   B     3.50844     2.55008     1.88757  0.00E+000 -7.24E+000 -2.41E+000 -2.40E+000 -2.53E+000  1.82E-002 -1.37E-001  1.42E-001
      27   B    13.02548     4.25669     3.79870  0.00E+000 -7.26E+000 -2.41E+000 -2.43E+000 -2.51E+000 -3.46E-006  3.31E-006  1.36E-001
      28   B     4.34183     4.25669     3.79870  0.00E+000 -7.26E+000 -2.41E+000 -2.43E+000 -2.51E+000 -3.46E-006 -3.30E-006 -1.36E-001
      29   B    10.51289     5.09532     3.76074  0.00E+000 -7.56E+000 -2.77E+000 -1.73E+000 -3.07E+000 -3.47E-001  4.72E-001  1.92E-001
      30   B     6.85442     5.09532     3.76074  0.00E+000 -7.56E+000 -2.77E+000 -1.73E+000 -3.07E+000 -3.47E-001 -4.72E-001 -1.92E-001
      31   B    13.02548     0.00000     1.89505  0.00E+000 -7.26E+000 -2.41E+000 -2.43E+000 -2.51E+000  3.67E-006  3.87E-007  1.36E-001
      32   B     4.34183     0.00000     1.89505  0.00E+000 -7.26E+000 -2.41E+000 -2.43E+000 -2.51E+000  3.67E-006 -3.83E-007 -1.36E-001
      33   B     9.72258     6.80601     1.91132  0.00E+000 -6.34E+000 -2.84E-001 -3.69E+000 -2.25E+000  5.42E-002 -1.64E+000 -8.63E-001
      34   B     7.64473     6.80601     1.91132  0.00E+000 -6.34E+000 -2.84E-001 -3.69E+000 -2.25E+000  5.42E-002  1.64E+000  8.63E-001
      35   B    12.19209     5.96331     1.88757  0.00E+000 -7.24E+000 -2.41E+000 -2.40E+000 -2.53E+000 -1.82E-002 -1.37E-001 -1.42E-001
      36   B     5.17522     5.96331     1.88757  0.00E+000 -7.24E+000 -2.41E+000 -2.40E+000 -2.53E+000 -1.82E-002  1.37E-001  1.42E-001
      37   B    14.71435     0.84867     3.79836  0.00E+000 -7.17E+000 -2.10E+000 -2.86E+000 -2.23E+000 -1.81E-001 -1.10E-001  1.29E-001
      38   B     2.65296     0.84867     3.79836  0.00E+000 -7.17E+000 -2.10E+000 -2.86E+000 -2.23E+000 -1.81E-001  1.10E-001 -1.29E-001
      39   B    11.33662     7.66471     3.79836  0.00E+000 -7.17E+000 -2.10E+000 -2.86E+000 -2.23E+000  1.81E-001  1.10E-001  1.29E-001
      40   B     6.03069     7.66471     3.79836  0.00E+000 -7.17E+000 -2.10E+000 -2.86E+000 -2.23E+000  1.81E-001 -1.10E-001 -1.29E-001
      41   N     9.44153     1.23717     2.92570  0.00E+000 -5.49E+000  1.53E+000 -4.23E+000 -2.86E+000 -1.19E+000  1.79E+000 -3.23E-001
      42   N     7.92578     1.23717     2.92570  0.00E+000 -5.49E+000  1.53E+000 -4.23E+000 -2.86E+000 -1.19E+000 -1.79E+000  3.23E-001
      43   N    16.00827     4.71206     2.85488  0.00E+000 -7.33E+000 -2.79E+000 -1.81E+000 -2.81E+000 -2.65E-001 -1.22E-001 -4.37E-001
      44   N     1.35904     4.71206     2.85488  0.00E+000 -7.33E+000 -2.79E+000 -1.81E+000 -2.81E+000 -2.65E-001  1.22E-001  4.37E-001
      45   N    15.10781     6.37274     0.95637  0.00E+000 -7.32E+000 -2.90E+000 -2.47E+000 -1.94E+000 -2.25E-002  1.65E-001  5.79E-001
      46   N     2.25950     6.37274     0.95637  0.00E+000 -7.32E+000 -2.90E+000 -2.47E+000 -1.94E+000 -2.25E-002 -1.65E-001 -5.79E-001
      47   N    10.94315     2.14065     0.95637  0.00E+000 -7.32E+000 -2.90E+000 -2.47E+000 -1.94E+000  2.25E-002 -1.65E-001  5.79E-001
      48   N     6.42415     2.14065     0.95637  0.00E+000 -7.32E+000 -2.90E+000 -2.47E+000 -1.94E+000  2.25E-002  1.65E-001 -5.79E-001
      49   N    10.04269     3.80132     2.85488  0.00E+000 -7.33E+000 -2.79E+000 -1.81E+000 -2.81E+000  2.65E-001  1.21E-001 -4.37E-001
      50   N     7.32462     3.80132     2.85488  0.00E+000 -7.33E+000 -2.79E+000 -1.81E+000 -2.81E+000  2.65E-001 -1.21E-001  4.37E-001
      51   N    16.60943     7.27622     2.92570  0.00E+000 -5.49E+000  1.53E+000 -4.23E+000 -2.86E+000  1.19E+000 -1.79E+000 -3.23E-001
      52   N     0.75788     7.27622     2.92570  0.00E+000 -5.49E+000  1.53E+000 -4.23E+000 -2.86E+000  1.19E+000  1.79E+000  3.23E-001
      53   N    14.28250     8.08984     2.84088  0.00E+000 -7.03E+000 -2.00E+000 -2.43E+000 -2.52E+000  4.54E-002  3.27E-003 -3.26E-001
      54   N     3.08481     8.08984     2.84088  0.00E+000 -7.03E+000 -2.00E+000 -2.43E+000 -2.52E+000  4.54E-002 -3.27E-003  3.26E-001
      55   N    16.60943     3.01953     1.02205  0.00E+000 -5.49E+000  1.53E+000 -4.23E+000 -2.86E+000  1.19E+000 -1.79E+000 -3.23E-001
      56   N     0.75788     3.01953     1.02205  0.00E+000 -5.49E+000  1.53E+000 -4.23E+000 -2.86E+000  1.19E+000  1.79E+000  3.23E-001
      57   N     9.44153     5.49386     1.02205  0.00E+000 -5.49E+000  1.53E+000 -4.23E+000 -2.86E+000 -1.19E+000  1.79E+000 -3.23E-001
      58   N     7.92578     5.49386     1.02205  0.00E+000 -5.49E+000  1.53E+000 -4.23E+000 -2.86E+000 -1.19E+000 -1.79E+000  3.23E-001
      59   N    11.76846     0.42355     2.84088  0.00E+000 -7.03E+000 -2.00E+000 -2.43E+000 -2.52E+000 -4.54E-002 -3.27E-003 -3.26E-001
      60   N     5.59885     0.42355     2.84088  0.00E+000 -7.03E+000 -2.00E+000 -2.43E+000 -2.52E+000 -4.54E-002  3.27E-003  3.26E-001
      61   N    12.60234     2.98486     2.84627  0.00E+000 -7.15E+000 -2.37E+000 -2.31E+000 -2.37E+000 -2.09E-003  3.12E-002  9.29E-002
      62   N     4.76497     2.98486     2.84627  0.00E+000 -7.15E+000 -2.37E+000 -2.31E+000 -2.37E+000 -2.09E-003 -3.12E-002 -9.29E-002
      63   N    11.76846     4.68024     0.93723  0.00E+000 -7.03E+000 -2.00E+000 -2.43E+000 -2.52E+000 -4.54E-002 -3.27E-003 -3.26E-001
      64   N     5.59885     4.68024     0.93723  0.00E+000 -7.03E+000 -2.00E+000 -2.43E+000 -2.52E+000 -4.54E-002  3.27E-003  3.26E-001
      65   N    14.28250     3.83315     0.93723  0.00E+000 -7.03E+000 -2.00E+000 -2.43E+000 -2.52E+000  4.54E-002  3.27E-003 -3.26E-001
      66   N     3.08481     3.83315     0.93723  0.00E+000 -7.03E+000 -2.00E+000 -2.43E+000 -2.52E+000  4.54E-002 -3.27E-003  3.26E-001
      67   N    13.44863     5.52853     2.84627  0.00E+000 -7.15E+000 -2.37E+000 -2.31E+000 -2.37E+000  2.09E-003 -3.12E-002  9.29E-002
      68   N     3.91868     5.52853     2.84627  0.00E+000 -7.15E+000 -2.37E+000 -2.31E+000 -2.37E+000  2.09E-003  3.12E-002 -9.29E-002
      69   N    10.94315     6.39734     2.86002  0.00E+000 -7.32E+000 -2.90E+000 -2.47E+000 -1.94E+000  2.25E-002 -1.65E-001  5.79E-001
      70   N     6.42415     6.39734     2.86002  0.00E+000 -7.32E+000 -2.90E+000 -2.47E+000 -1.94E+000  2.25E-002  1.65E-001 -5.79E-001
      71   N    13.44862     1.27183     0.94262  0.00E+000 -7.15E+000 -2.37E+000 -2.31E+000 -2.37E+000  2.09E-003 -3.12E-002  9.29E-002
      72   N     3.91868     1.27183     0.94262  0.00E+000 -7.15E+000 -2.37E+000 -2.31E+000 -2.37E+000  2.09E-003  3.12E-002 -9.29E-002
      73   N    10.04269     8.05802     0.95123  0.00E+000 -7.33E+000 -2.79E+000 -1.81E+000 -2.81E+000  2.65E-001  1.21E-001 -4.37E-001
      74   N     7.32462     8.05802     0.95123  0.00E+000 -7.33E+000 -2.79E+000 -1.81E+000 -2.81E+000  2.65E-001 -1.21E-001  4.37E-001
      75   N    16.00827     0.45537     0.95123  0.00E+000 -7.33E+000 -2.79E+000 -1.81E+000 -2.81E+000 -2.65E-001 -1.22E-001 -4.37E-001
      76   N     1.35904     0.45537     0.95123  0.00E+000 -7.33E+000 -2.79E+000 -1.81E+000 -2.81E+000 -2.65E-001  1.22E-001  4.37E-001
      77   N    12.60234     7.24155     0.94262  0.00E+000 -7.15E+000 -2.37E+000 -2.31E+000 -2.37E+000 -2.09E-003  3.12E-002  9.29E-002
      78   N     4.76497     7.24155     0.94262  0.00E+000 -7.15E+000 -2.37E+000 -2.31E+000 -2.37E+000 -2.09E-003 -3.12E-002 -9.29E-002
      79   N    15.10781     2.11605     2.86002  0.00E+000 -7.32E+000 -2.90E+000 -2.47E+000 -1.94E+000 -2.25E-002  1.65E-001  5.79E-001
      80   N     2.25950     2.11605     2.86002  0.00E+000 -7.32E+000 -2.90E+000 -2.47E+000 -1.94E+000 -2.25E-002 -1.65E-001 -5.79E-001
